! TOUCHSTONE file generated by CST MICROWAVE STUDIO
! Date and time: Tue Jun 18 14:03:05 2024
! Project name: COPRIME.cst
! Parameters = {L=29.68; Sl=59.36; Sw=54.73; W=38.23; fac_la=0.206; h=1.6; l4=16.5; lLT=3; la=13.596; lambda=66; t=0.0175; wa=5.8; wfeed=3.1}
! Header version: 2018
! Port assignment regex: !\s*Touchstone port\s*([0-9]+)\s*=\s*(CST MWS port|CST DS port)\s*([0-9]+|Zmin|Zmax)\s*\(\"(.*)\"\)(\s*mode\s*([0-9]+))?.*
! Touchstone port assignment:
! Touchstone port 1 = CST MWS port 1 ("")
! Touchstone port 2 = CST MWS port 2 ("")
! Touchstone port 3 = CST MWS port 3 ("")
! Touchstone port 4 = CST MWS port 4 ("")
! Touchstone port 5 = CST MWS port 5 ("")
! Touchstone port 6 = CST MWS port 6 ("")
! Touchstone port 7 = CST MWS port 7 ("")
! Touchstone port 8 = CST MWS port 8 ("")
! Touchstone port 9 = CST MWS port 9 ("")
! Touchstone port 10 = CST MWS port 10 ("")
# GHz S MA R 50
1.5                  0.980048374      110.059525   0.000278515064       -66.68715    3.1182138e-05      24.5630256   6.23866741e-06      146.515024
                  3.37370452e-07     -163.051784   6.29562241e-08     -33.0271839   5.76763858e-09      57.4114418   4.57409825e-10      102.146459
                  8.40853484e-11     -158.631454   1.01008585e-11     -49.9420654
                   0.00027851398     -66.6868216      0.980029541      109.134616   0.000452444381     -28.3450423   6.25293347e-05      105.563237
                  4.04114796e-06      141.793968   8.05122514e-07     -82.0143808   6.53525796e-08      15.3044429   4.16823641e-09      65.5488837
                  8.40524942e-11     -162.928026   4.15261796e-11     -54.4639165
                  3.11846628e-05      24.5625651   0.000452446467     -28.3448633       0.98032724      109.921663   0.000839340516      3.20810161
                  4.02017051e-05      53.8373764   9.51687093e-06      175.928019    8.2011111e-07     -82.1923916   6.08048901e-08     -32.4094871
                  1.34239311e-09     -77.7064467   1.35407932e-10     -110.506258
                  6.23706448e-06      146.535881   6.25251162e-05      105.562936   0.000839342286      3.20816695      0.980131607      109.688225
                  0.000268197558     -75.1481337   4.11289327e-05      52.4276253   4.15998544e-06       141.05036   3.36794433e-07     -164.665445
                  1.08613128e-08      164.562363   1.12516664e-09     -122.383859
                  3.32266002e-07     -163.107599   4.03648861e-06      141.608926   4.02042406e-05       53.819842   0.000268185163     -75.1473491
                     0.980192073      109.630558   0.000830539457      2.13072146   6.30624077e-05      105.106582   6.11292459e-06      145.109421
                  2.16835412e-07      105.943139    8.1222341e-09      70.0410934
                  6.11921775e-08     -32.0255978   8.03349933e-07     -82.2213329   9.51651082e-06      175.922411   4.11270161e-05      52.4302153
                  0.000830549846      2.13173885      0.980237299      109.628133   0.000454728972     -28.3285741   3.08090499e-05      23.5426315
                  1.19950252e-06     -22.4696881   4.57838099e-08     -61.3103306
                  4.33889091e-09      61.8619437   6.38406582e-08      15.1394103   8.13421752e-07      -81.937876   4.15391334e-06      141.079836
                   6.3043911e-05      105.124391   0.000454737404     -28.3277836      0.980039628      109.616868     0.0002786259     -67.4936028
                   8.3910353e-06      -110.92764   3.26076967e-07       -152.1612
                  6.03201301e-10      103.902956   4.28129783e-09      53.1511044   6.13705853e-08     -32.2435892   3.36134185e-07     -164.763355
                   6.1244759e-06      145.295795    3.0821951e-05      23.5353131   0.000278639424     -67.4857358       0.98000117      109.560697
                  0.000104254092     -159.082032     3.483707e-06      156.397687
                  5.36804664e-11      84.6149576   1.05448586e-10     -42.0858415   1.99480625e-09     -77.3399485   1.13341774e-08      163.432511
                  2.21913318e-07        106.4584   1.20252221e-06     -22.5598332   8.39903365e-06     -110.871798   0.000104251852     -159.075663
                     0.980044111       109.68883   0.000104505538     -159.443492
                  8.80699563e-12       -14.42426   4.63558436e-12     -133.007894   8.91473222e-11     -140.379635   1.19508515e-09     -118.732486
                  8.70823478e-09      67.5874298   4.56847416e-08     -62.4669274   3.28387044e-07     -152.228498   3.48451599e-06      156.385802
                  0.000104509033     -159.444561      0.979981765      109.721529
1.5015               0.980140083      109.989717   0.000278008469     -67.0864368    3.0718416e-05      23.8934611   6.29982774e-06      145.814591
                   3.3478562e-07     -162.906903   6.24206018e-08     -33.1902931   5.76350411e-09       57.464965   4.52648992e-10      102.670253
                    8.432237e-11     -159.025276   9.61976197e-12     -42.3894373
                  0.000278012621     -67.0880653       0.98011714      109.063931    0.00045136568     -28.6589642   6.22280775e-05      105.452898
                  4.02129184e-06      141.529623   7.99359628e-07     -81.9911251   6.51745372e-08      15.1459737   4.16108596e-09      65.5947668
                  8.31865347e-11     -165.561201    3.8190327e-11      -49.999557
                  3.07121478e-05      23.8902959   0.000451370629     -28.6586922       0.98041286      109.851284   0.000837744751      2.97191838
                  4.01881319e-05      53.8974354   9.66532075e-06      174.553861   8.14366264e-07      -82.172365   6.02894331e-08     -32.5630843
                  1.34389699e-09     -77.6035658   1.29640024e-10     -108.049239
                  6.29711961e-06      145.831459   6.22248407e-05       105.45497   0.000837740353      2.97213524       0.98022356      109.617138
                  0.000267407182     -75.5100464   4.12025741e-05      52.3495021   4.13921171e-06      140.786506   3.34241695e-07     -164.527312
                  1.07847212e-08      164.434907   1.12519943e-09     -122.055541
                  3.29723259e-07      -162.95212   4.01659794e-06      141.343432   4.01883765e-05       53.888057   0.000267396037     -75.5094618
                     0.980284417      109.559646   0.000828964059      1.88579784   6.27477407e-05       104.97551   6.15957992e-06      144.565757
                  2.17053843e-07      106.234541   8.06676788e-09      70.3853266
                  6.07201668e-08     -32.1963703   7.97608691e-07     -82.1979895   9.66821615e-06      174.324244   4.11993202e-05      52.3551793
                   0.00082896982       1.8867579      0.980321755      109.557304   0.000453644012     -28.6454725   3.03616494e-05      22.8935833
                   1.1957211e-06      -23.020252   4.56796697e-08     -61.3481568
                   4.3624207e-09      61.9236326    6.3632405e-08      14.9288143   8.07658769e-07     -81.9159023   4.13337031e-06      140.814399
                  6.27311115e-05      104.991616   0.000453662441     -28.6433889      0.980127272      109.546714    0.00027809758     -67.8940304
                  8.33164006e-06     -111.741961   3.24901149e-07     -152.561141
                  5.95140158e-10      104.114092   4.28618619e-09      53.2553112   6.08553192e-08     -32.4324887   3.33619796e-07     -164.623881
                  6.17243351e-06      144.784395   3.03601442e-05      22.8778963   0.000278107268     -67.8861486      0.980092954      109.490304
                  0.000104263224     -159.538402   3.46575506e-06      155.654022
                  5.35290069e-11      84.6036085   1.03350255e-10     -41.4613642   1.98833377e-09     -77.2791207   1.12519828e-08      163.338361
                  2.22094392e-07       106.81046   1.19849247e-06     -23.1159656   8.33968941e-06     -111.683807   0.000104153678     -159.574549
                     0.980134414      109.618482   0.000104469803     -159.932888
                  8.59049788e-12     -14.3587308   4.52055101e-12     -132.303457   8.87421679e-11     -139.972641    1.1900412e-09     -118.749846
                  8.64441756e-09      67.4446647   4.54989773e-08     -62.4239816   3.27240557e-07     -152.632339   3.46653191e-06      155.637408
                  0.000104512196     -159.883876      0.980072348      109.651184
1.503                0.980231531      109.920386   0.000277498041     -67.4858886    3.0269318e-05      23.2133103   6.36095519e-06      145.097501
                  3.32191083e-07     -162.761033   6.18859736e-08     -33.3544716   5.75929066e-09      57.5193513   4.47921447e-10      103.205182
                  8.45598403e-11     -159.412472   9.33209991e-12     -34.1071441
                   0.00027750724     -67.4894519      0.980204578       108.99372   0.000450289834     -28.9726973   6.19245472e-05      105.341853
                  4.00133422e-06       141.26233   7.93576543e-07     -81.9681756   6.49943584e-08      14.9869369   4.15395608e-09       65.640634
                  8.24917402e-11     -168.226223   3.51335158e-11     -44.6532148
                  3.02548335e-05      23.2068747   0.000450297594     -28.9723332      0.980498366      109.781394   0.000836156136       2.7363606
                  4.01769916e-05      53.9630457   9.80718437e-06      173.157302   8.08600763e-07     -82.1526967   5.97750163e-08     -32.7176567
                  1.34537133e-09     -77.5003817   1.24013304e-10     -105.370961
                  6.35711032e-06      145.110634   6.19222694e-05      105.346367   0.000836145714      2.73672633        0.9803152      109.546544
                  0.000266617606     -75.8718869   4.12813885e-05      52.2706959   4.11833243e-06      140.519741   3.31679383e-07     -164.388243
                  1.07079992e-08      164.306113   1.12525556e-09     -121.727629
                  3.27170865e-07     -162.795512   3.99660609e-06      141.074979   4.01748482e-05      53.9621809   0.000266607693     -75.8715008
                     0.980376443      109.489229   0.000827396734      1.64152871   6.24310167e-05      104.843119   6.20645992e-06      144.009146
                  2.17274765e-07       106.52928   8.01093881e-09      70.7337793
                  6.02484926e-08     -32.3683094   7.91847383e-07     -82.1749391   9.81073274e-06      172.711872   4.12767814e-05      52.2796045
                  0.000827397955      1.64243587      0.980406123      109.486964   0.000452561994     -28.9621705   2.99277802e-05      22.2340757
                  1.19190541e-06     -23.5760427   4.55747654e-08     -61.3862388
                  4.38573231e-09      61.9873637   6.34221081e-08      14.7173513   8.01875046e-07     -81.8942597    4.1127238e-06      140.546023
                  6.24162948e-05      104.857504   0.000452590321     -28.9588074      0.980214751      109.477032   0.000277565676     -68.2944984
                  8.27287611e-06     -112.557151   3.23716406e-07     -152.965798
                  5.87125471e-10      104.332753   4.29096152e-09      53.3605584   6.03409967e-08     -32.6225832   3.31095582e-07     -164.483424
                   6.2207293e-06      144.259992   2.99128715e-05      22.2092343   0.000277571544     -68.2866065      0.980184459       109.42039
                  0.000104267899     -159.997294   3.44782587e-06      154.907187
                  5.33727108e-11      84.5921276   1.01265786e-10     -40.8108132   1.98185024e-09     -77.2176712   1.11696438e-08      163.243336
                  2.22277448e-07      107.166829   1.19442878e-06     -23.6773241   8.28097307e-06     -112.496666   0.000104051424     -160.074452
                     0.980224479       109.54861   0.000104428811     -160.424049
                  8.37510304e-12     -14.2909274   4.40626949e-12     -131.577408    8.8338375e-11      -139.56262   1.18499424e-09     -118.766761
                  8.58034762e-09      67.3000008   4.53116468e-08     -62.3803926   3.26085108e-07     -153.040918   3.44857112e-06      154.885895
                  0.000104511347     -160.325929      0.980162699      109.581316
1.5045               0.980322719      109.851532   0.000276983852     -67.8854922   2.98344617e-05      22.5229423   6.42198118e-06      144.363619
                  3.29586785e-07      -162.61416   6.13523466e-08     -33.5197377   5.75499779e-09      57.5746101   4.43228401e-10      103.751516
                   8.4797539e-11     -159.793047   9.26254328e-12     -25.4072952
                  0.000276997913     -67.8909675      0.980291855      108.923982   0.000449216898     -29.2862401   6.16187009e-05      105.230077
                  3.98127439e-06      140.992037   7.87773147e-07     -81.9455461   6.48120257e-08      14.8273263   4.14684693e-09      65.6864832
                  8.19689417e-11     -170.912678   3.24475875e-11     -38.2834442
                  2.98123166e-05       22.512702   0.000449227413     -29.2857849      0.980583759      109.711992    0.00083457476      2.50142651
                  4.01684179e-05      54.0344696   9.94196503e-06      171.741143   8.02814486e-07      -82.133402   5.92616472e-08     -32.8732209
                   1.3468159e-09     -77.3968805   1.18561857e-10     -102.445375
                  6.41696866e-06       144.37328   6.16173578e-05      105.237103   0.000834558457      2.50193842       0.98040653      109.476439
                  0.000265828893      -76.233652   4.13656174e-05      52.1911018   4.09734687e-06      140.250011   3.29107441e-07     -164.248226
                  1.06311471e-08      164.175956   1.12533481e-09     -121.400139
                  3.24608764e-07     -162.637756   3.97651239e-06      140.803514   4.01637843e-05      54.0424963   0.000265820192     -76.2334626
                     0.980468151      109.419304   0.000825837567      1.39791117   6.21122069e-05      104.709366   6.25353452e-06       143.43937
                  2.17498218e-07      106.827436   7.95474566e-09      71.0865237
                  5.97771618e-08     -32.5414358   7.86065898e-07     -82.1521953   9.94361104e-06      171.089124   4.13596427e-05       52.203393
                  0.000825834336      1.39876978        0.9804904      109.417108    0.00045148297     -29.2786665   2.95071123e-05      21.5644392
                  1.18805518e-06     -24.1371243   4.54690829e-08     -61.4245805
                  4.40882251e-09      62.0531227   6.32097522e-08      14.5050103   7.96070463e-07     -81.8729632   4.09197311e-06      140.274655
                  6.20994331e-05      104.722013   0.000451521095     -29.2740375      0.980302066      109.407822   0.000277030269     -68.6949947
                  8.21474597e-06       -113.3732   3.22522641e-07     -153.375254
                  5.79158392e-10      104.559219   4.29562298e-09      53.4668571   5.98276254e-08     -32.8138923    3.2856148e-07     -164.341971
                   6.2693376e-06      143.722335   2.94797628e-05      21.5297107   0.000277032332     -68.6870972      0.980275687      109.350951
                  0.000104268055     -160.458671   3.42992237e-06      154.157186
                  5.32115341e-11      84.5805103   9.91960314e-11     -40.1327484   1.97535567e-09     -77.1555912   1.10871603e-08      163.147422
                  2.22462498e-07      107.527614   1.19033095e-06     -24.2439715   8.22288708e-06     -113.310365   0.000103945112     -160.575333
                     0.980314307      109.479213   0.000104382542     -160.916923
                  8.16082507e-12     -14.2207217   4.29275388e-12     -130.828426    8.7935964e-11     -139.149538   1.17994435e-09     -118.783219
                  8.51602345e-09      67.1533992   4.51227246e-08      -62.336146   3.24920595e-07     -153.454319    3.4306366e-06       154.13127
                  0.000104506416     -160.770692      0.980252818      109.511923
1.506                0.980413647      109.783152   0.000276465977     -68.2852348    2.9413475e-05        21.82273   6.48283275e-06      143.612826
                  3.26972672e-07     -162.466269   6.08197283e-08     -33.6861102   5.75062505e-09      57.6307512   4.38571106e-10      104.309529
                  8.50352463e-11     -160.167009   9.42254003e-12     -16.7092091
                  0.000276484716     -68.2925989       0.98037897      108.854715   0.000448146921     -29.5995912   6.13104946e-05      105.117544
                  3.96111163e-06      140.718688   7.81949326e-07     -81.9232515   6.46275214e-08      14.6671353   4.13975866e-09      65.7323121
                  8.16178544e-11     -173.609639   3.02455803e-11     -30.8003931
                  2.93842042e-05      21.8081824   0.000448160138     -29.5990458      0.980669036      109.643076   0.000833000713      2.26711429
                  4.01625535e-05      54.1119839   1.00692095e-05      170.308258   7.97007311e-07     -82.1144969   5.87493331e-08     -33.0297944
                  1.34823049e-09     -77.2930484   1.13325907e-10     -99.2447973
                  6.47662245e-06      143.619284   6.13100603e-05      105.127155   0.000832978669      2.26776966      0.980497551      109.406823
                  0.000265041103     -76.5953382   4.14555157e-05      52.1106036    4.0762543e-06      139.977263   3.26525813e-07     -164.107248
                   1.0554165e-08      164.044411   1.12543701e-09     -121.073084
                  3.22036904e-07     -162.478837   3.95631613e-06       140.52898    4.0155322e-05      54.1293023   0.000265033596     -76.5953438
                     0.980559546      109.349869    0.00082428664       1.1549423   6.17912819e-05      104.574207   6.30077111e-06      142.856207
                  2.17724245e-07      107.129096   7.89818732e-09      71.4436339
                   5.9306181e-08     -32.7157707   7.80264125e-07     -82.1297725   1.00664844e-05        169.4598   4.14481604e-05      52.1264368
                  0.000824279044       1.1557566      0.980574584      109.347737   0.000450406992     -29.5949592   2.90993234e-05      20.8850083
                  1.18417015e-06     -24.7035616   4.53626081e-08     -61.4631859
                  4.43168804e-09      62.1208965   6.29953217e-08      14.2917802   7.90244901e-07     -81.8520284   4.07111753e-06      140.000241
                  6.17804979e-05      104.585098   0.000450454817     -29.5890778      0.980389216      109.339081   0.000276491442     -69.0955074
                  8.15725189e-06     -114.190095   3.21319761e-07     -153.789597
                  5.71240114e-10       104.79378    4.3001697e-09      53.5742185   5.93152132e-08     -33.0064362   3.26017428e-07     -164.199508
                  6.31823022e-06      143.171174   2.90604574e-05      20.8397132   0.000276489716     -69.0876089      0.980366639      109.281988
                  0.000104263633     -160.922493   3.41204752e-06      153.404021
                  5.30454323e-11      84.5687519   9.71419107e-11     -39.4256406   1.96885009e-09     -77.0928722   1.10045324e-08      163.050602
                   2.2264955e-07      107.892922   1.18619878e-06     -24.8159716   8.16543367e-06     -114.124891   0.000103834769     -161.077153
                     0.980403898      109.410289   0.000104330982     -161.411454
                  7.94767811e-12     -14.1479749   4.18001947e-12     -130.055073   8.75349563e-11     -138.733359    1.1748916e-09      -118.79921
                  8.45144353e-09      67.0048195   4.49321846e-08     -62.2912272   3.23746919e-07     -153.872629   3.41273134e-06      153.373535
                  0.000104497331     -161.218132      0.980342706      109.443003
1.5075               0.980504316      109.715245   0.000275944492     -68.6851035   2.90059953e-05      21.1130496   6.54343249e-06      142.845019
                   3.2434869e-07     -162.317347   6.02881261e-08     -33.8536084   5.74617198e-09      57.6877843   4.33950856e-10      104.879499
                  8.52727429e-11     -160.534366   9.80730888e-12      -8.4325759
                  0.000275967727     -68.6943326      0.980465922      108.785918   0.000447079956     -29.9127491   6.09998831e-05      105.004226
                  3.94084524e-06      140.442227   7.76104964e-07      -81.901307   6.44408276e-08      14.5063577   4.13269145e-09      65.7781185
                  8.14370477e-11     -176.305929   2.86543901e-11     -22.2393541
                  2.89701138e-05       21.093724    0.00044709582     -29.9121146      0.980754195      109.574644   0.000831434083      2.03342209
                   4.0159551e-05      54.1958811   1.01885145e-05      168.861569   7.91179117e-07     -82.0959982   5.82380818e-08     -33.1873947
                  1.34961486e-09     -77.1888716   1.08352629e-10     -95.7409441
                  6.53599524e-06      142.848554   6.10003301e-05      105.016497   0.000831406436      2.03421818      0.980588264      109.337694
                  0.000264254297     -76.9569423   4.15513524e-05      52.0290733   4.05505399e-06       139.70144   3.23934444e-07     -163.965296
                   1.0477053e-08      163.911451   1.12556195e-09     -120.746478
                   3.1945523e-07     -162.318736   3.93601661e-06      140.251323   4.01496081e-05      54.2229149   0.000264247965     -76.9571412
                     0.980650627      109.280923   0.000822744035     0.912619107   6.14682121e-05      104.437593   6.34813447e-06      142.259445
                  2.17952887e-07      107.434348   7.84126278e-09       71.805186
                  5.88355572e-08      -32.891336    7.7444195e-07      -82.107686    1.0179074e-05      167.827641   4.15426057e-05      52.0486157
                  0.000822732162      0.91339329      0.980658673      109.278848   0.000449334113     -29.9110471    2.8704099e-05      20.1961219
                  1.18025008e-06     -25.2754203   4.52553261e-08     -61.5020594
                   4.4543256e-09      62.1906722   6.27788008e-08      14.0776496   7.84398235e-07     -81.8314718   4.05015636e-06      139.722724
                  6.14594605e-05      104.446713   0.000449391536      -29.903927        0.9804762       109.27081    0.00027594928     -69.4960247
                   8.1003959e-06     -115.007821   3.20107669e-07     -154.208916
                  5.63371871e-10      105.036738   4.30460083e-09      53.6826541   5.88037677e-08     -33.2002359   3.23463364e-07      -164.05602
                  6.36737631e-06      142.606258    2.8654603e-05      20.1396335   0.000275943779     -69.4881297      0.980457316      109.213498
                  0.000104254574     -161.388719   3.39420427e-06      152.647698
                  5.28743605e-11      84.5568474   9.51044105e-11     -38.6878669   1.96233352e-09     -77.0295053     1.092176e-08      162.952862
                  2.22838615e-07      108.262866    1.1820321e-06     -25.3933891   8.10861483e-06     -114.940229   0.000103720423     -161.579873
                     0.980493252      109.341837   0.000104274119     -161.907587
                  7.73567646e-12     -14.0725359   4.06808297e-12     -129.255779   8.71353738e-11     -138.314048   1.16983609e-09     -118.814724
                  8.38660637e-09      66.8542199   4.47400002e-08     -62.2456211   3.22563978e-07     -154.295937   3.39485834e-06      152.612698
                  0.000104484026     -161.668218      0.980432361      109.374554
1.509                0.980594726       109.64781   0.000275419473     -69.0850856   2.86116697e-05      20.3942809    6.6036985e-06      142.060118
                  3.21714782e-07     -162.167379   5.97575472e-08     -34.0222524   5.74163814e-09      57.7457195   4.29368989e-10      105.461708
                  8.55098097e-11     -160.895129   1.03980932e-11    -0.890392737
                  0.000275447025     -69.0961554       0.98055271      108.717589   0.000446016052     -30.2257124   6.06868201e-05      104.890093
                   3.9204745e-06      140.162596   7.70239943e-07     -81.8797287   6.42519266e-08      14.3449867   4.12564544e-09         65.8239
                  8.14239503e-11     -178.990411   2.77949636e-11     -12.8389934
                  2.85696724e-05      20.3697383    0.00044603451     -30.2249897      0.980839236      109.506695   0.000829874956        1.800348
                  4.01595737e-05      54.2864703   1.02995324e-05      167.404027   7.85329778e-07     -82.0779234   5.77279005e-08     -33.3460405
                   1.3509688e-09     -77.0843359   1.03696793e-10     -91.9067051
                   6.5950063e-06      142.061017    6.0688119e-05      104.905101   0.000829841843      1.80128204      0.980678672       109.26905
                  0.000263468534     -77.3184611   4.16534116e-05      51.9463692    4.0337452e-06      139.422487   3.21333277e-07     -163.822355
                  1.03998113e-08      163.777049   1.12570943e-09     -120.420335
                  3.16863688e-07     -162.157437   3.91561315e-06      139.970483   4.01467999e-05      54.3236688    0.00026346336     -77.3188516
                     0.980741398      109.212465   0.000821209833     0.670938599   6.11429673e-05      104.299477   6.39558657e-06       141.64887
                  2.18184186e-07      107.743283   7.78397114e-09      72.1712582
                  5.83652971e-08     -33.0681546   7.68599258e-07     -82.0859515   1.02811909e-05      166.196287   4.16432648e-05       51.969797
                  0.000821193769     0.671676752      0.980742666       109.21044   0.000448264383     -30.2269291    2.8321132e-05      19.4981225
                  1.17629472e-06     -25.8527668    4.5147222e-08     -61.5412051
                  4.47673186e-09      62.2624382    6.2560174e-08      13.8626068   7.78530342e-07     -81.8113107    4.0290889e-06      139.442047
                  6.11362918e-05      104.306808   0.000448331304     -30.2185837      0.980563016      109.203005   0.000275403864     -69.8965349
                  8.04417979e-06     -115.826364   3.18886271e-07     -154.633302
                   5.5555494e-10      105.288406   4.30891551e-09      53.7921755   5.82932966e-08     -33.3953128   3.20899224e-07     -163.911493
                  6.41674219e-06       142.02734   2.82618558e-05      19.4298671   0.000275394606     -69.8886479      0.980547718       109.14548
                  0.000104240823     -161.857306   3.37639561e-06      151.888219
                  5.26982732e-11      84.5447916   9.30845921e-11     -37.9177061   1.95580598e-09     -76.9654818   1.08388431e-08      162.854183
                  2.23029698e-07      108.637563   1.17783074e-06     -25.9762892   8.05243232e-06     -115.756367   0.000103602104     -162.083453
                      0.98058237      109.273855   0.000104211946     -162.405267
                  7.52483461e-12     -13.9942401   3.95696262e-12     -128.428829   8.67372386e-11     -137.891567   1.16477789e-09      -118.82975
                  8.32151044e-09      66.7015575   4.45461437e-08     -62.1993122   3.21371671e-07     -154.724332   3.37702058e-06      151.848764
                  0.000104466435     -162.120917      0.980521786      109.306576
1.5105               0.980684879      109.580844   0.000274890997     -69.4851685   2.82301537e-05      19.6668071   6.66354441e-06      141.258063
                  3.19070894e-07     -162.016351    5.9227999e-08     -34.1920628   5.73702307e-09      57.8045668   4.24826887e-10       106.05644
                  8.57462283e-11     -161.249309   1.11680676e-11      5.75805146
                  0.000274922688     -69.4980543      0.980639334      108.649726   0.000444955259       -30.53848   6.03712581e-05      104.775114
                  3.89999869e-06      139.879737   7.64354147e-07     -81.8585335      6.40608e-08      14.1830158   4.11862078e-09      65.8696543
                  8.15748905e-11      178.347742   2.77514873e-11     -3.05971331
                  2.81825167e-05      19.6366401   0.000444976259     -30.5376698      0.980924156      109.439226   0.000828323418      1.56789008
                  4.01627965e-05      54.3840785    1.0401976e-05      165.938583   7.79459169e-07     -82.0602908   5.72187968e-08     -33.5057505
                  1.35229208e-09     -76.9794276   9.94210495e-11      -87.718879
                  6.65357061e-06      141.256621   6.03733777e-05      104.792939   0.000828284973      1.56895926      0.980768777      109.200889
                  0.000262683875     -77.6798917   4.17619932e-05      51.8623356   4.01232719e-06      139.140345   3.18722257e-07     -163.678413
                    1.032244e-08      163.641178   1.12587925e-09     -120.094667
                  3.14262224e-07     -161.994921   3.89510503e-06      139.686402   4.01470655e-05      54.4319184   0.000262679841     -77.6804719
                     0.980831861      109.144491   0.000819684112      0.42989773    6.0815517e-05      104.159806   6.44308653e-06      141.024278
                  2.18418186e-07      108.055994   7.72631164e-09      72.5419306
                  5.78954074e-08     -33.2462497   7.62735931e-07     -82.0645857   1.03727372e-05      164.569247   4.17504403e-05      51.8898337
                  0.000819663943     0.430603865       0.98082656       109.14251   0.000447197853     -30.5426038   2.79501222e-05      18.7913569
                  1.17230383e-06     -26.4356682     4.503828e-08     -61.5806274