! TOUCHSTONE file generated by CST MICROWAVE STUDIO
! Date and time: Wed Jun 19 09:28:37 2024
! Project name: CoprimeDipolo.cst
! Parameters = {Mue=1; Er=4.4}
! Header version: 2018
! Port assignment regex: !\s*Touchstone port\s*([0-9]+)\s*=\s*(CST MWS port|CST DS port)\s*([0-9]+|Zmin|Zmax)\s*\(\"(.*)\"\)(\s*mode\s*([0-9]+))?.*
! Touchstone port assignment:
! Touchstone port 1 = CST MWS port 1 ("")
! Touchstone port 2 = CST MWS port 2 ("")
! Touchstone port 3 = CST MWS port 3 ("")
! Touchstone port 4 = CST MWS port 4 ("")
! Touchstone port 5 = CST MWS port 5 ("")
! Touchstone port 6 = CST MWS port 6 ("")
! Touchstone port 7 = CST MWS port 7 ("")
! Touchstone port 8 = CST MWS port 8 ("")
! Touchstone port 9 = CST MWS port 9 ("")
! Touchstone port 10 = CST MWS port 10 ("")
# GHz S MA R 50
1.4                  0.987209582      -13.691713    0.00311260569      63.8443684   0.000952067925     -30.7145817   0.000556784774     -81.0547782
                  0.000105134188      142.198828   6.11719441e-05      92.1810749   2.14339119e-05     -1.20960059    4.1827822e-06     -139.712737
                  2.33499469e-07      -3.5304767   1.33002623e-08      127.930966
                   0.00311218141      63.9251402      0.987422008     -13.7274297    0.00588739541      103.309658    0.00321774437      57.7284736
                  0.000587538004     -78.9761824    0.00034201451     -129.196168   0.000119495322      137.466901   2.30616325e-05    -0.246626447
                  1.30174511e-06      133.684284   7.39078004e-08     -94.7869753
                  0.000951632382     -30.6087142    0.00588982992      103.305057       0.98830801     -13.6485974     0.0111176291      124.139466
                   0.00169833222      14.9590218   0.000981681724     -35.4554203    0.00034174556     -128.986963   6.51930305e-05      93.7748472
                  3.74575819e-06     -133.677895   2.13086907e-07     -2.20894535
                  0.000559089559     -80.5150564    0.00321715812      57.7226099      0.011117189      124.148503      0.988260298     -13.5611105
                   0.00299777114      64.7005672    0.00169340893      14.9609215   0.000585047282     -78.7918042   0.000110736144      143.853047
                  6.44145714e-06     -83.7681281   3.67500978e-07      48.0896104
                  0.000106276146      142.762033   0.000587163166     -78.9134206    0.00169777088      14.9837872    0.00299669793       64.694098
                     0.988181103     -13.5958269     0.0111657753       124.11068    0.00322828405      57.7981538   0.000586007129     -79.5045866
                  3.45090262e-05      52.0175244   1.96639411e-06     -175.643127
                  6.27324721e-05      92.2417718   0.000342310734     -129.065584   0.000981709117     -35.4337358    0.00169282152      14.9648866
                    0.0111660089      124.103441      0.988292675      -13.651905     0.0058910628      103.382926   0.000996530632      -29.564445
                  5.94873088e-05      102.331504   3.35344042e-06     -125.249593
                   2.2140743e-05      -2.3817234   0.000119915494      137.526634    0.00034199777      -129.05861    0.00058500514     -78.8157066
                   0.00323219182      57.8093906    0.00589124723      103.382067       0.98745197     -13.7334326    0.00324991488      64.8353105
                  0.000187634124     -162.597045     1.052418e-05     -30.7424561
                  4.09777394e-06     -140.875727   2.25074506e-05    -0.386990679   6.41039442e-05      93.1237836   0.000109650806      143.319974
                  0.000586072199     -80.1267207   0.000997583633     -29.7724218    0.00325477214       64.771744      0.987345308     -13.7186685
                   0.00100061776       -24.06268   5.66041303e-05      107.318491
                  2.37525202e-07     -8.68915716   1.34185623e-06      132.248385   3.83101039e-06     -133.963887   6.55290492e-06     -83.7391871
                  3.50044343e-05      52.6253303   5.95163998e-05      102.927002   0.000186794871     -162.247458   0.000998499656     -23.9771122
                     0.987268338     -13.7696154   0.000951897202     -25.0168196
                   1.2862988e-08      123.491479   7.55458517e-08     -96.1228363   2.17178804e-07     -2.08046629   3.71632876e-07       48.199453
                  1.97903245e-06     -175.577864   3.37484738e-06     -125.193762   1.05956652e-05     -30.4005314   5.67055615e-05      107.682558
                   0.00095027491      -25.076939      0.987294986     -13.6640673
1.402                0.987122277     -13.7273106    0.00313335186       63.636323   0.000958363565     -31.1086197   0.000560009526     -81.6009283
                  0.000104847565      141.597024   6.08551279e-05      91.7426909    2.1307509e-05     -1.14968968   4.19885732e-06     -139.332952
                  2.33325973e-07     -4.05944026   1.32892009e-08      127.372847
                   0.00313298969      63.7189181      0.987338941     -13.7631053    0.00592469323      103.169877    0.00323976887      57.4986003
                  0.000590862066     -79.5402978   0.000343438381     -129.820537   0.000119192632      136.862679   2.29384599e-05    -0.178655887
                  1.31440251e-06      133.700097   7.53233652e-08     -95.2550816
                  0.000957930954     -31.0067355    0.00592718477      103.163785      0.988230527     -13.6840566     0.0111858413      124.108977
                    0.0017103695      14.6271166   0.000988947612     -35.8794025   0.000343224731     -129.648773   6.48168453e-05      93.3639848
                  3.76095246e-06     -133.188756    2.2053309e-07     0.131767099
                  0.000562245801     -81.0566735    0.00323919947      57.4883627     0.0111852029      124.117815      0.988189437     -13.5958726
                   0.00301730443       64.482598    0.00170516263      14.6394917   0.000588260042     -79.3534929   0.000110397958      143.264171
                  6.39521263e-06     -83.1340608   3.67757837e-07      48.1161475
                  0.000105968524      142.166149    0.00059041969     -79.4691297    0.00170963552      14.6647148    0.00301621856      64.4753923
                     0.988110306     -13.6306668     0.0112342605      124.078674    0.00325002535      57.5709171   0.000589041668     -80.0735926
                  3.42088868e-05      51.7915449   1.97215405e-06     -174.938968
                  6.24077477e-05        91.82487   0.000343647511     -129.707596   0.000989198907     -35.8664282    0.00170459158      14.6410865
                    0.0112344361      124.072269      0.988214644     -13.6873463    0.00592815361      103.240436    0.00100301976       -29.97653
                  5.90838062e-05      101.723611    3.3149415e-06     -124.705603
                  2.20187408e-05     -2.34359962    0.00011963105      136.941892   0.000343416476       -129.6969   0.000588201076     -79.3715597
                   0.00325473328      57.5799352    0.00592858909       103.24087      0.987369397     -13.7691376    0.00327157016      64.6218651
                  0.000188006893     -163.343588   1.03531751e-05     -31.0000026
                  4.11130067e-06     -140.461051   2.23862018e-05    -0.323673725    6.3769868e-05      92.7066624   0.000109334171      142.736183
                  0.000589470359     -80.6759817    0.00100407922     -30.1815099    0.00327645664      64.5540916      0.987257452     -13.7544844
                   0.00100647753     -24.5779658   5.65085481e-05      106.444454
                  2.37319984e-07      -9.6619113   1.35675369e-06       132.36453   3.84261496e-06      -133.47824    6.5120829e-06     -83.1742149
                  3.47164643e-05      52.3708011   5.91488853e-05      102.313193   0.000187233127     -162.996708     0.0010046637     -24.3172743
                     0.987183208     -13.8053327   0.000958199018     -25.4566343
                  1.27379791e-08      121.626888   8.13965749e-08     -99.1025301   2.21784372e-07     -2.98259855    3.7700743e-07      48.7155088
                  1.98616402e-06     -174.706897   3.32584551e-06     -124.682478   1.04059284e-05     -30.7712701   5.66907073e-05       106.80139
                  0.000956456316     -25.5929377      0.987213139      -13.699293
1.404                0.987034306     -13.7630184    0.00315424122      63.4280637    0.00096470765     -31.5018851   0.000563273682     -82.1458578
                  0.000104566198      140.989245   6.05380155e-05      91.2982755   2.11803231e-05     -1.08758677   4.21522734e-06     -138.953705
                  2.33176643e-07     -4.59204867   1.32792796e-08      126.811305
                   0.00315394118      63.5124562      0.987255165     -13.7988974    0.00596224859      103.029744    0.00326194609      57.2683086
                  0.000594228566     -80.1030665   0.000344889692     -130.444936   0.000118895024      136.252416   2.28145336e-05    -0.108504667
                   1.3271298e-06      133.716101   7.67455798e-08     -95.7119162
                  0.000964278445      -31.403937    0.00596479635       103.02218      0.988152446     -13.7196294     0.0112545368      124.078083
                   0.00172248759       14.295757   0.000996269305     -36.3024448   0.000344734751      -130.31028   6.44397573e-05      92.9472003
                  3.77651805e-06     -132.700822   2.28420566e-07      2.29191121
                  0.000565440671     -81.5971998     0.0032613934      57.2537583     0.0112537004       124.08673      0.988117954     -13.6307508
                   0.00303695973      64.2645387    0.00171699596      14.3184404   0.000591514851     -79.9139254   0.000110064729      142.669144
                  6.34963227e-06     -82.4875704   3.68021676e-07      48.1428021
                  0.000105665955      141.564223    0.00059371777     -80.0236088    0.00172157949      14.3459923    0.00303586122      64.2566079
                     0.988038883     -13.6656238     0.0113032302      124.046278    0.00327192097       57.343225   0.000592119435     -80.6416138
                  3.39071349e-05      51.5619039   1.97824789e-06     -174.236195
                  6.20825057e-05      91.4023283   0.000345012785     -130.349757   0.000996745467     -36.2979912    0.00171644119      14.3176919
                     0.011303348      124.040698      0.988136019     -13.7229013    0.00596550254      103.097634    0.00100956094     -30.3877358
                  5.86827078e-05      101.105831   3.27670427e-06     -124.145309
                  2.18959516e-05     -2.30380417   0.000119351219      136.351468   0.000344863578     -130.335192   0.000591438192     -79.9262454
                   0.00327742803      57.3500416     0.0059661888      103.099342      0.987286112     -13.8049591    0.00329337504      64.4081716
                  0.000188401168     -164.091292   1.01816407e-05     -31.2635109
                  4.12513604e-06      -140.04651   2.22642015e-05    -0.258259264   6.34351509e-05      92.2838511   0.000109022342      142.146438
                   0.00059291015     -81.2240626    0.00101062661     -30.5897553    0.00329829089       64.336257      0.987168906      -13.790412
                   0.00101239953     -25.0914614   5.64210082e-05      105.564494
                  2.37198653e-07      -10.643506   1.37174217e-06      132.479395      3.85457e-06      -132.99275   6.47176952e-06     -82.5990472
                  3.44270339e-05      52.1120906    5.8784032e-05      101.690051   0.000187693023     -163.746638    0.00101087625     -24.6575316
                     0.987097392     -13.8411652   0.000964554833     -25.8949113
                  1.26263536e-08      119.722889   8.73474787e-08     -101.700186   2.26458637e-07     -3.84456941   3.82432564e-07      49.2168587
                  1.99378977e-06     -173.838948   3.27705869e-06     -124.152287   1.02158541e-05     -31.1529792   5.66840017e-05      105.916442
                  0.000962700859     -26.1068243      0.987130626     -13.7346313
1.406                0.986945666      -13.798837      0.003175275      63.2195878   0.000971100492     -31.8943904   0.000566577426     -82.6895614
                  0.000104290258      140.375456   6.02206545e-05      90.8477012   2.10523493e-05     -1.02322366   4.23189466e-06     -138.575028
                  2.33051918e-07     -5.12820813   1.32705172e-08      126.246407
                   0.00317503711      63.3057521      0.987170676     -13.8348065    0.00600006357       102.88926    0.00328427735      57.0375969
                  0.000597637666     -80.6644802   0.000346368655     -131.069326   0.000118602685      135.636065   2.26898493e-05   -0.0361093344
                  1.33992758e-06      133.732295   7.81743333e-08     -96.1580407
                  0.000970675163     -31.8003313    0.00600266673      102.880243      0.988073761     -13.7553163     0.0113237197      124.046783
                   0.00173468707      13.9649302    0.00100364716     -36.7245665    0.00034627583     -130.971436   6.40618061e-05      92.5243539
                  3.79245716e-06     -132.214161   2.36703371e-07       4.2806278
                  0.000568674361     -82.1366289    0.00328374124      57.0187945     0.0113226856      124.055246      0.988045842     -13.6657459
                   0.00305673799      64.0463868    0.00172890952      13.9977574   0.000594811878     -80.4730911   0.000109736635       142.06792
                  6.30474553e-06     -81.8284867    3.6829259e-07      48.1695732
                  0.000105368613      140.956213   0.000597057582     -80.5768488    0.00173360338      14.0276092    0.00305562686       64.037742
                     0.987966828     -13.7006983     0.0113726883      124.013493    0.00329397226       57.115076   0.000595240647     -81.2086325
                  3.36037628e-05      51.3284813   1.98467686e-06     -173.535028
                  6.17567861e-05      90.9740262   0.000346406783      -130.99202    0.00100434913     -36.7284478    0.00172837094      13.9946919
                    0.0113727486      124.008729      0.988056795     -13.7585707    0.00600311167      102.954518    0.00101615449     -30.7980744
                   5.8284161e-05      100.477973   3.23874608e-06     -123.568187
                  2.17723694e-05     -2.26228588   0.000119076167      135.755319   0.000346339292     -130.973443   0.000594716666     -80.4797537
                   0.00330027741       57.119708    0.00600404846       102.95748      0.987202109     -13.8408977    0.00331533081      64.1942279
                  0.000188817136     -164.840042   1.00095769e-05     -31.5332945
                  4.13928285e-06     -139.632147   2.21414451e-05    -0.190685714   6.30998324e-05      91.8552258   0.000108715488      141.550695
                   0.00059639177      -81.770958    0.00101722612     -30.9971696    0.00332027617      64.1182374      0.987079664     -13.8264521
                   0.00101838387     -25.6031688   5.63416545e-05      104.678759
                  2.37163244e-07     -11.6332473    1.3868224e-06      132.593015   3.86687842e-06      -132.50749   6.43198711e-06     -82.0135467
                  3.41361397e-05      51.8490667   5.84219823e-05      101.057415   0.000188174715     -164.497132    0.00101713772     -24.9978868
                     0.987010883     -13.8771138   0.000970964853     -26.3316652
                  1.25285784e-08      117.782492   9.33669036e-08      -103.98541   2.31197821e-07     -4.66824716   3.87907145e-07      49.7039579
                  2.00191027e-06     -172.974405   3.22850562e-06     -123.602364   1.00254535e-05     -31.5462952    5.6685546e-05      105.027886
                  0.000969008618     -26.6186105      0.987047443     -13.7700829
1.408                0.986856349     -13.8347669    0.00319645443      63.0108929   0.000977542405     -32.2861478   0.000569920941     -83.2320347
                  0.000104019921      139.755626   5.99030947e-05      90.3908374   2.09235827e-05     -0.95652957   4.24886166e-06     -138.196957
                  2.32952233e-07     -5.66782031   1.32629327e-08      125.678224
                   0.00319627872      63.0988034      0.987085466     -13.8708335    0.00603814028      102.748422    0.00330676399      56.8064632
                  0.000601089532      -81.224531   0.000347875485     -131.693669   0.000118315807      135.013586   2.25644028e-05    0.0385958121
                  1.35279641e-06      133.748679   7.96095219e-08     -96.5939823
                  0.000977121418     -32.1959311    0.00604079802      102.737973      0.987994467     -13.7911181     0.0113933939      124.015076
                   0.00174696852      13.6346235    0.00101108155     -37.1457865   0.000347848173     -131.632191   6.36830338e-05      92.0953021
                  3.80877194e-06     -131.728843    2.4533949e-07       6.1081155
                  0.000571947063     -82.6749553     0.0033062443      56.7834688     0.0113921627      124.023364      0.987973097     -13.7008583
                   0.00307664018      63.8281393    0.00174090393      13.6774323   0.000598151295     -81.0309798   0.000109413855      141.460454
                  6.26058267e-06      -81.156647   3.68570676e-07      48.1964597
                   0.00010507667      140.342084     0.0006004393     -81.1288413    0.00174570781      13.7095552    0.00307551642      63.8187916
                     0.987894136      -13.735891      0.011442639      123.980315    0.00331618058      56.8864685   0.000598405521     -81.7746319
                  3.32987633e-05      51.0911517   1.99144208e-06     -172.835681
                  6.14306309e-05      90.5398398    0.00034782973     -131.634339    0.00101201024     -37.1578206    0.00174038144      13.6720759
                    0.0114426422      123.976361      0.987976966     -13.7943551    0.00604098313      102.811089    0.00102280072     -31.2075578
                  5.78883188e-05      99.8398396   3.20108509e-06     -122.973704
                   2.1647988e-05     -2.21899167   0.000118806068      135.153403   0.000347843834     -131.611611   0.000598036678      -81.032075
                   0.00332328273      56.8889326    0.00604217016      102.815284      0.987117381     -13.8769541    0.00333743877      63.9800316
                  0.000189254975      -165.58972   9.83698422e-06     -31.8096909
                  4.15374391e-06      -139.21801    2.2017928e-05    -0.120889286   6.27639542e-05      91.4206594    0.00010841378      140.948912
                  0.000599915419     -82.3166631    0.00102387807     -31.4037647    0.00334241376        63.90003      0.986989719     -13.8626053
                   0.00102443063     -26.1130906   5.62706299e-05      103.787404
                  2.37215739e-07     -12.6304031   1.40199509e-06      132.705424   3.87954311e-06     -132.022529   6.39275867e-06      -81.417581
                  3.38437788e-05      51.5815917   5.80628831e-05      100.415126   0.000188678355     -165.248076    0.00102344853     -25.3383428
                     0.986923676      -13.913179   0.000977429291     -26.7669112
                  1.24450906e-08      115.809151   9.94308644e-08     -106.013214   2.35998399e-07     -5.45543345   3.93430095e-07      50.1772486
                  2.01052584e-06     -172.113649   3.18020613e-06     -123.031847   9.83473886e-06     -31.9519055   5.66954396e-05      104.135899
                  0.000975379671     -27.1283082      0.986963583     -13.8056484
1.41                  0.98676635     -13.8708089    0.00321778078      62.8019765   0.000984033709     -32.6771699   0.000573304414     -83.7732738
                  0.000103755364      139.129727    5.9585388e-05      89.9275507   2.07940186e-05    -0.887431006   4.26613075e-06     -137.819523
                  2.32878023e-07     -6.21078229   1.32565451e-08      125.106827
                   0.00321766726      62.8916079       0.98699953     -13.9069789    0.00607648084      102.607231    0.00332940735      56.5749057
                  0.000604584329      -81.783212   0.000349410394     -132.317928   0.000118034585      134.384936     2.243819e-05     0.115678821
                  1.36573688e-06      133.765251   8.10510492e-08     -97.0202364
                  0.000983617527     -32.5907489    0.00607919233      102.595369       0.98791456     -13.8270355     0.0114635637      123.982961
                   0.00175933254      13.3048245    0.00101857283      -37.566124   0.000349451987     -132.292497   6.33034845e-05      91.6598975
                  3.82546451e-06     -131.244934   2.54290835e-07      7.78505841
                  0.000575258968     -83.2121741    0.00332890393      56.5477788     0.0114621358      123.991081      0.987899712     -13.7360888
                   0.00309666725      63.6097938    0.00175297979      13.3574549   0.000601533273     -81.5875823   0.000109096575      140.846702
                  6.21717482e-06     -80.4718983   3.68856036e-07      48.2234603
                  0.000104790304      139.721799   0.000603863103     -81.6795787     0.0017578934        13.39182    0.00309553088      63.5997541
                     0.987820801     -13.7712026     0.0115130865      123.946745    0.00333854731      56.6574009   0.000601614275      -82.339596
                  3.29921295e-05      50.8497834   1.99854453e-06     -172.138368
                  6.11040839e-05      90.0996428   0.000349281852     -132.276669    0.00101972915     -37.5861323     0.0017524733      13.3498335
                    0.0115130329      123.943591      0.987896529     -13.8302551    0.00607911904      102.667344    0.00102949995     -31.6161981
                  5.74953396e-05      99.1912362   3.16374038e-06     -122.361315
                  2.15228013e-05     -2.17386647   0.000118541097       134.54568   0.000349377422     -132.249656   0.000601398409     -81.5832007
                   0.00334644534      56.6577135    0.00608055604      102.672754      0.987031923      -13.913129    0.00335970024      63.7655804
                  0.000189714864     -166.340209   9.66386362e-06     -32.0930633
                  4.16852201e-06     -138.804141   2.18936457e-05   -0.0488038868     6.242756e-05      90.9800218   0.000108117394      140.341051
                  0.000603481297     -82.8611739    0.00103058279     -31.8095525    0.00336470497      63.6816319      0.986899067     -13.8988722
                   0.00103053991       -26.62123   5.62080757e-05      102.890592
                  2.37358059e-07     -13.6342063   1.41726097e-06      132.816654   3.89256691e-06      -131.53794    6.3541078e-06     -80.8110227
                  3.35499487e-05      51.3095217    5.7706886e-05      99.7630264    0.00018920409     -165.999353    0.00102980907     -25.6789025
                     0.986835764     -13.9493615   0.000983948362     -27.2006642
                  1.23762917e-08      113.806751   1.05521002e-07     -107.827204   2.40857078e-07     -6.20785991    3.9900039e-07      50.6371595
                  2.01963649e-06     -171.257048   3.13218138e-06     -122.439835   9.64372382e-06     -32.3705536   5.67137794e-05      103.240664
                  0.000981814105     -27.6359302      0.986879041     -13.8413283
1.412                0.986675664     -13.9069636     0.0032392553      62.5928361   0.000990574729      -33.067469   0.000576728031     -84.3132754
                   0.00010349677      138.497731   5.92675892e-05      89.4577047   2.06636522e-05    -0.815851641   4.28370434e-06     -137.442762
                  2.32829722e-07     -6.75698668   1.32513733e-08      124.532295
                     0.003239204      62.6841631      0.986912861     -13.9432433    0.00611508738      102.465687     0.0033522088      56.3429225
                  0.000608122223      -82.340517   0.000350973596     -132.942064    0.00011775922      133.750077   2.23112068e-05     0.195210188
                  1.37874957e-06      133.782012   8.24988247e-08     -97.4372687
                  0.000990163809     -32.9847973    0.00611785179       102.45243      0.987834034      -13.863069     0.0115342333      123.950438
                   0.00177177973      12.9755208    0.00102612139     -37.9855976   0.000351087476     -132.952307   6.29232051e-05      91.2179882
                  3.84253696e-06     -130.762501   2.63523095e-07      9.32220256
                  0.000578610274     -83.7482809    0.00335172148      56.3117222      0.011532609      123.958396      0.987825683     -13.7714379
                   0.00311682019      63.3913474    0.00176513773      13.0378151   0.000604957984       -82.14289   0.000108784983      140.226623
                  6.17455394e-06     -79.7740978   3.69148768e-07      48.2505738
                  0.000104509699      139.095327   0.000607329167     -82.2290541    0.00177016078      13.0743935    0.00311567123      63.3806266
                     0.987746817     -13.8066336      0.011584035      123.912781    0.00336107383      56.4278718   0.000604867126     -82.9035092
                  3.26838546e-05      50.6042387   2.00598509e-06     -171.443298
                  6.07771913e-05      89.6533054   0.000350763373     -132.918966     0.0010275062     -38.0134053    0.00176464714      13.0279541
                    0.0115839249      123.910419      0.987815477     -13.8662716    0.00611752156      102.523284    0.00103625251     -32.0240072
                  5.71053876e-05      98.5319662   3.12673196e-06     -121.730468
                  2.13968034e-05     -2.12685316   0.000118281436      133.932112   0.000350940268     -132.887534    0.00060480204     -82.1331227
                    0.0033697666      56.4260491    0.00611920823      102.529888      0.986945727     -13.9494229    0.00338211652       63.550872
                  0.000190196973     -167.091392   9.49021628e-06     -32.3838039
                  4.18361995e-06     -138.390587   2.17685938e-05    0.0256389754   6.20906958e-05      90.5331794   0.000107826509      139.727073
                  0.000607089609     -83.4044869     0.0010373406     -32.2145448    0.00338715112      63.4630403        0.9868077     -13.9352534
                   0.00103671181     -27.1275908   5.61541319e-05      101.988495
                  2.37592061e-07     -14.6438566    1.4326208e-06      132.926736   3.90595265e-06     -131.053793   6.31605877e-06     -80.1937509
                  3.32546474e-05      51.0327064   5.73541479e-05      99.1009582   0.000189752064     -166.750849    0.00103621977     -26.0195685
                     0.986747142      -13.985662   0.000990522286     -27.6329394
                  1.23225414e-08      111.779573    1.1162312e-07     -109.462134   2.45770783e-07     -6.92718618   4.04617056e-07      51.0841067
                  2.02924195e-06     -170.404961   3.08445387e-06     -121.825391   9.45242349e-06     -32.8030452   5.67406597e-05      102.342367
                  0.000988312004     -28.1414895      0.986793811     -13.8771235
1.414                0.986584285     -13.9432316    0.00326087927      62.3834693   0.000997165794     -33.4570575   0.000580191983     -84.8520369
                  0.000103244323      137.859616   5.89497551e-05      88.9811598    2.0532479e-05    -0.741712176   4.30158485e-06     -137.066704
                   2.3280776e-07     -7.30632159    1.3247436e-08      123.954705
                   0.00326089022      62.4764669      0.986825452     -13.9796275    0.00615396206      102.323787     0.0033751697      56.1105119
                  0.000611703382     -82.8964406   0.000352565304     -133.566041   0.000117489916      133.108972   2.21834493e-05     0.277262963
                  1.39183508e-06      133.798961   8.39527643e-08     -97.8455176
                   0.00099676059     -33.3780889    0.00615677856      102.309156      0.987752885     -13.8992194     0.0116054069      123.917504
                   0.00178431069      12.6467002    0.00103372761     -38.4042262   0.000352754842     -133.611576   6.25422449e-05      90.7694183
                  3.85999136e-06     -130.281609   2.73005489e-07      10.7300573
                  0.000582001178     -84.2832718    0.00337469831      56.0752965     0.0116035867      123.925309      0.987751002     -13.8069063
                   0.00313709998      63.1727975     0.0017773784      12.7185028   0.000608425603     -82.6968952   0.000108479271      139.600181
                  6.13275282e-06     -79.0631142   3.69448977e-07       48.277799
                  0.000104235037      138.462636   0.000610837674     -82.7772613    0.00178251059      12.7572656    0.00313593843      63.1614065
                     0.987672179     -13.8421848     0.0116554887      123.878422    0.00338376154      56.1978796   0.000608164296     -83.4663572
                  3.23739323e-05       50.354373   2.01376451e-06     -170.750674
                  6.04500015e-05      89.2006949   0.000352274518     -133.561184    0.00103534175     -38.4396618    0.00177690358      12.7064275
                    0.0116553224      123.876844      0.987733806      -13.902405    0.00615619285      102.378906    0.00104305874     -32.4309972
                  5.67186327e-05      97.8618331   3.09008079e-06     -121.080599
                  2.12699882e-05     -2.07789246   0.000118027267      133.312662   0.000352532589     -133.525208   0.000608247754     -82.6818336